[Molden Format]
[Porgram] BDF
[BDF variables]
ENERGY=           -76.33883031
-V/T=               2.00424260
[N_ATOMS]
            3
[Atoms]  AU
O     1    8       0.000000        0.000000        0.221665
H     2    1      -1.430901        0.000000       -0.886659
H     3    1       1.430901       -0.000000       -0.886659
[5D7F9G]
[GTO]
    1
    s    8
   0.117200000E+05   0.709645947E-03
   0.175900000E+04   0.546727229E-02
   0.400800000E+03   0.278231186E-01
   0.113700000E+03   0.104747740E+00
   0.370300000E+02   0.282920846E+00
   0.132700000E+02   0.448495239E+00
   0.502500000E+01   0.270816885E+00
   0.101300000E+01   0.154502916E-01
    s    8
   0.117200000E+05  -0.314443412E-03
   0.175900000E+04  -0.248213768E-02
   0.400800000E+03  -0.123163554E-01
   0.113700000E+03  -0.505389173E-01
   0.370300000E+02  -0.139384903E+00
   0.132700000E+02  -0.325077495E+00
   0.502500000E+01  -0.229848308E+00
   0.101300000E+01   0.109537935E+01
    s    1
   0.302300000E+00   0.100000000E+01
    p    3
   0.177000000E+02   0.626791663E-01
   0.385400000E+01   0.333536566E+00
   0.104600000E+01   0.741239642E+00
    p    1
   0.275300000E+00   0.100000000E+01
    d    1
   0.118500000E+01   0.100000000E+01

    2
    s    3
   0.130100000E+02   0.334987264E-01
   0.196200000E+01   0.234800801E+00
   0.444600000E+00   0.813682958E+00
    s    1
   0.122000000E+00   0.100000000E+01
    p    1
   0.727000000E+00   0.100000000E+01

    3
    s    3
   0.130100000E+02   0.334987264E-01
   0.196200000E+01   0.234800801E+00
   0.444600000E+00   0.813682958E+00
    s    1
   0.122000000E+00   0.100000000E+01
    p    1
   0.727000000E+00   0.100000000E+01

[MO]
 Sym= A1  
 Ene=       -19.195773
 Spin= Alpha
 Occup=       2.000000
   1        1.002885490
   2        0.006851556
   3       -0.006313095
   4        0.000000000
   5        0.000000000
   6       -0.001971515
   7        0.000000000
   8        0.000000000
   9        0.000701255
  10        0.000004102
  11        0.000000000
  12        0.000000000
  13        0.000427142
  14        0.000000000
  15       -0.000483194
  16        0.000920252
  17       -0.000930085
  18        0.000000000
  19       -0.000834068
  20       -0.000483194
  21        0.000920252
  22        0.000930085
  23        0.000000000
  24       -0.000834068
 Sym= A1  
 Ene=        -1.021189
 Spin= Alpha
 Occup=       2.000000
   1       -0.007834705
   2        0.439408009
   3        0.355483273
   4        0.000000000
   5        0.000000000
   6       -0.110357696
   7        0.000000000
   8        0.000000000
   9        0.006248884
  10        0.002230740
  11        0.000000000
  12        0.000000000
  13        0.004577358
  14        0.000000000
  15        0.203862759
  16        0.012868303
  17        0.037639730
  18        0.000000000
  19        0.019329847
  20        0.203862759
  21        0.012868303
  22       -0.037639730
  23        0.000000000
  24        0.019329847
 Sym= B1  
 Ene=        -0.527213
 Spin= Alpha
 Occup=       2.000000
   1        0.000000000
   2        0.000000000
   3        0.000000000
   4        0.501333954
   5        0.000000000
   6        0.000000000
   7        0.202547821
   8        0.000000000
   9        0.000000000
  10        0.000000000
  11       -0.022947183
  12        0.000000000
  13        0.000000000
  14        0.000000000
  15       -0.331323531
  16       -0.101456802
  17       -0.017289395
  18        0.000000000
  19       -0.029603595
  20        0.331323531
  21        0.101456802
  22       -0.017289395
  23        0.000000000
  24        0.029603595
 Sym= A1  
 Ene=        -0.379358
 Spin= Alpha
 Occup=       2.000000
   1       -0.006270082
   2        0.165085481
   3        0.375149029
   4        0.000000000
   5        0.000000000
   6        0.545283400
   7        0.000000000
   8        0.000000000
   9        0.354999299
  10       -0.018629227
  11        0.000000000
  12        0.000000000
  13       -0.001617780
  14        0.000000000
  15       -0.201795971
  16       -0.045678011
  17       -0.026708383
  18        0.000000000
  19        0.014588386
  20       -0.201795971
  21       -0.045678011
  22        0.026708383
  23        0.000000000
  24        0.014588386
 Sym= B2  
 Ene=        -0.301505
 Spin= Alpha
 Occup=       2.000000
   1        0.000000000
   2        0.000000000
   3        0.000000000
   4        0.000000000
   5        0.633012814
   6        0.000000000
   7        0.000000000
   8        0.491408284
   9        0.000000000
  10        0.000000000
  11        0.000000000
  12       -0.019382776
  13        0.000000000
  14        0.000000000
  15        0.000000000
  16        0.000000000
  17        0.000000000
  18        0.033738727
  19        0.000000000
  20        0.000000000
  21        0.000000000
  22        0.000000000
  23        0.033738727
  24        0.000000000
 Sym= A1  
 Ene=         0.070410
 Spin= Alpha
 Occup=       0.000000
   1       -0.031000335
   2        0.127393550
   3        0.907235651
   4        0.000000000
   5        0.000000000
   6       -0.239505102
   7        0.000000000
   8        0.000000000
   9       -0.311325677
  10        0.008214280
  11        0.000000000
  12        0.000000000
  13        0.003931380
  14        0.000000000
  15       -0.107895040
  16       -0.770522268
  17        0.003506257
  18        0.000000000
  19       -0.004070640
  20       -0.107895040
  21       -0.770522268
  22       -0.003506257
  23        0.000000000
  24       -0.004070640
 Sym= B1  
 Ene=         0.145914
 Spin= Alpha
 Occup=       0.000000
   1        0.000000000
   2        0.000000000
   3        0.000000000
   4        0.360155132
   5        0.000000000
   6        0.000000000
   7        0.619052091
   8        0.000000000
   9        0.000000000
  10        0.000000000
  11       -0.009714060
  12        0.000000000
  13        0.000000000
  14        0.000000000
  15        0.101703763
  16        1.321331839
  17        0.001917063
  18        0.000000000
  19       -0.002886081
  20       -0.101703763
  21       -1.321331839
  22        0.001917063
  23        0.000000000
  24        0.002886081
 Sym= B1  
 Ene=         0.579329
 Spin= Alpha
 Occup=       0.000000
   1        0.000000000
   2        0.000000000
   3        0.000000000
   4        0.288719206
   5        0.000000000
   6        0.000000000
   7        0.343676532
   8        0.000000000
   9        0.000000000
  10        0.000000000
  11        0.108694483
  12        0.000000000
  13        0.000000000
  14        0.000000000
  15        0.939438612
  16       -0.846331581
  17       -0.061908041
  18        0.000000000
  19       -0.140190298
  20       -0.939438612
  21        0.846331581
  22       -0.061908041
  23        0.000000000
  24        0.140190298
 Sym= A1  
 Ene=         0.633780
 Spin= Alpha
 Occup=       0.000000
   1       -0.064724890
   2       -0.241431934
   3        0.329143838
   4        0.000000000
   5        0.000000000
   6        0.365475833
   7        0.000000000
   8        0.000000000
   9       -0.044741923
  10       -0.001295730
  11        0.000000000
  12        0.000000000
  13        0.100273167
  14        0.000000000
  15        0.805701859
  16       -0.605520822
  17       -0.260021658
  18        0.000000000
  19       -0.049555948
  20        0.805701859
  21       -0.605520822
  22        0.260021658
  23        0.000000000
  24       -0.049555948
 Sym= A1  
 Ene=         0.923778
 Spin= Alpha
 Occup=       0.000000
   1       -0.009582101
   2       -0.134981603
   3       -0.667493902
   4        0.000000000
   5        0.000000000
   6       -0.754555053
   7        0.000000000
   8        0.000000000
   9        1.241602998
  10       -0.015043891
  11        0.000000000
  12        0.000000000
  13        0.015613889
  14        0.000000000
  15        0.531778321
  16        0.097212946
  17        0.039316889
  18        0.000000000
  19        0.240931960
  20        0.531778321
  21        0.097212946
  22       -0.039316889
  23        0.000000000
  24        0.240931960
 Sym= B2  
 Ene=         0.945948
 Spin= Alpha
 Occup=       0.000000
   1        0.000000000
   2        0.000000000
   3        0.000000000
   4        0.000000000
   5        0.966777474
   6        0.000000000
   7        0.000000000
   8       -1.007426856
   9        0.000000000
  10        0.000000000
  11        0.000000000
  12       -0.002185352
  13        0.000000000
  14        0.000000000
  15        0.000000000
  16        0.000000000
  17        0.000000000
  18       -0.030423518
  19        0.000000000
  20        0.000000000
  21        0.000000000
  22        0.000000000
  23       -0.030423518
  24        0.000000000
 Sym= B1  
 Ene=         1.018742
 Spin= Alpha
 Occup=       0.000000
   1        0.000000000
   2        0.000000000
   3        0.000000000
   4       -0.744783313
   5        0.000000000
   6        0.000000000
   7        1.769366218
   8        0.000000000
   9        0.000000000
  10        0.000000000
  11       -0.023435652
  12        0.000000000
  13        0.000000000
  14        0.000000000
  15        0.375593092
  16        0.849748721
  17        0.267934643
  18        0.000000000
  19        0.135554528
  20       -0.375593092
  21       -0.849748721
  22        0.267934643
  23        0.000000000
  24       -0.135554528
 Sym= A1  
 Ene=         1.217336
 Spin= Alpha
 Occup=       0.000000
   1       -0.212847226
   2       -0.554863066
   3        0.533920578
   4        0.000000000
   5        0.000000000
   6       -0.138289334
   7        0.000000000
   8        0.000000000
   9        0.744476713
  10        0.127089310
  11        0.000000000
  12        0.000000000
  13       -0.012271598
  14        0.000000000
  15        0.333376725
  16       -0.219917608
  17        0.332641413
  18        0.000000000
  19       -0.530419788
  20        0.333376725
  21       -0.219917608
  22       -0.332641413
  23        0.000000000
  24       -0.530419788
 Sym= A2  
 Ene=         1.242958
 Spin= Alpha
 Occup=       0.000000
   1        0.000000000
   2        0.000000000
   3        0.000000000
   4        0.000000000
   5        0.000000000
   6        0.000000000
   7        0.000000000
   8        0.000000000
   9        0.000000000
  10        0.000000000
  11        0.000000000
  12        0.000000000
  13        0.000000000
  14        0.140286755
  15        0.000000000
  16        0.000000000
  17        0.000000000
  18       -0.682451732
  19        0.000000000
  20        0.000000000
  21        0.000000000
  22        0.000000000
  23        0.682451732
  24        0.000000000
 Sym= B2  
 Ene=         1.438591
 Spin= Alpha
 Occup=       0.000000
   1        0.000000000
   2        0.000000000
   3        0.000000000
   4        0.000000000
   5       -0.004050653
   6        0.000000000
   7        0.000000000
   8        0.659713499
   9        0.000000000
  10        0.000000000
  11        0.000000000
  12        0.171923500
  13        0.000000000
  14        0.000000000
  15        0.000000000
  16        0.000000000
  17        0.000000000
  18       -0.762033182
  19        0.000000000
  20        0.000000000
  21        0.000000000
  22        0.000000000
  23       -0.762033182
  24        0.000000000
 Sym= A1  
 Ene=         1.610831
 Spin= Alpha
 Occup=       0.000000
   1       -0.724475176
   2       -1.596104313
   3        3.019456800
   4        0.000000000
   5        0.000000000
   6       -0.078821555
   7        0.000000000
   8        0.000000000
   9       -0.989927163
  10       -0.122207883
  11        0.000000000
  12        0.000000000
  13       -0.112605341
  14        0.000000000
  15       -0.809344708
  16       -0.402854567
  17       -0.359492076
  18        0.000000000
  19        0.037510185
  20       -0.809344708
  21       -0.402854567
  22        0.359492076
  23        0.000000000
  24        0.037510185
 Sym= B1  
 Ene=         1.685230
 Spin= Alpha
 Occup=       0.000000
   1        0.000000000
   2        0.000000000
   3        0.000000000
   4       -0.017955037
   5        0.000000000
   6        0.000000000
   7        0.933142198
   8        0.000000000
   9        0.000000000
  10        0.000000000
  11        0.033570271
  12        0.000000000
  13        0.000000000
  14        0.000000000
  15        0.392792745
  16        0.109462716
  17       -0.460953878
  18        0.000000000
  19        0.700204410
  20       -0.392792745
  21       -0.109462716
  22       -0.460953878
  23        0.000000000
  24       -0.700204410
 Sym= B1  
 Ene=         2.138684
 Spin= Alpha
 Occup=       0.000000
   1        0.000000000
   2        0.000000000
   3        0.000000000
   4        0.789610129
   5        0.000000000
   6        0.000000000
   7        0.191393649
   8        0.000000000
   9        0.000000000
  10        0.000000000
  11        0.145122044
  12        0.000000000
  13        0.000000000
  14        0.000000000
  15        0.275686019
  16        0.376878429
  17        0.737397493
  18        0.000000000
  19        0.555118630
  20       -0.275686019
  21       -0.376878429
  22        0.737397493
  23        0.000000000
  24       -0.555118630
 Sym= A1  
 Ene=         2.176011
 Spin= Alpha
 Occup=       0.000000
   1        0.260125488
   2        0.688738825
   3        0.864134679
   4        0.000000000
   5        0.000000000
   6       -0.637046146
   7        0.000000000
   8        0.000000000
   9       -0.211073685
  10       -0.052828646
  11        0.000000000
  12        0.000000000
  13       -0.223962810
  14        0.000000000
  15       -0.473474391
  16       -0.182762085
  17       -0.755249726
  18        0.000000000
  19       -0.544439376
  20       -0.473474391
  21       -0.182762085
  22        0.755249726
  23        0.000000000
  24       -0.544439376
 Sym= B2  
 Ene=         2.935848
 Spin= Alpha
 Occup=       0.000000
   1        0.000000000
   2        0.000000000
   3        0.000000000
   4        0.000000000
   5        0.014890102
   6        0.000000000
   7        0.000000000
   8       -0.321205395
   9        0.000000000
  10        0.000000000
  11        0.000000000
  12        1.040924042
  13        0.000000000
  14        0.000000000
  15        0.000000000
  16        0.000000000
  17        0.000000000
  18        0.406257505
  19        0.000000000
  20        0.000000000
  21        0.000000000
  22        0.000000000
  23        0.406257505
  24        0.000000000
 Sym= A2  
 Ene=         2.981005
 Spin= Alpha
 Occup=       0.000000
   1        0.000000000
   2        0.000000000
   3        0.000000000
   4        0.000000000
   5        0.000000000
   6        0.000000000
   7        0.000000000
   8        0.000000000
   9        0.000000000
  10        0.000000000
  11        0.000000000
  12        0.000000000
  13        0.000000000
  14       -1.064911516
  15        0.000000000
  16        0.000000000
  17        0.000000000
  18       -0.376938930
  19        0.000000000
  20        0.000000000
  21        0.000000000
  22        0.000000000
  23        0.376938930
  24        0.000000000
 Sym= A1  
 Ene=         3.148718
 Spin= Alpha
 Occup=       0.000000
   1        0.084836087
   2        0.157478342
   3       -0.537046916
   4        0.000000000
   5        0.000000000
   6        0.007792140
   7        0.000000000
   8        0.000000000
   9        0.538707067
  10       -1.080271936
  11        0.000000000
  12        0.000000000
  13        0.193189801
  14        0.000000000
  15        0.292347098
  16        0.037036633
  17        0.348688647
  18        0.000000000
  19       -0.328954010
  20        0.292347098
  21        0.037036633
  22       -0.348688647
  23        0.000000000
  24       -0.328954010
 Sym= A1  
 Ene=         3.489494
 Spin= Alpha
 Occup=       0.000000
   1       -0.151989064
   2       -0.196085537
   3        2.322324360
   4        0.000000000
   5        0.000000000
   6       -0.397596073
   7        0.000000000
   8        0.000000000
   9       -0.950282778
  10        0.151151166
  11        0.000000000
  12        0.000000000
  13        1.155650277
  14        0.000000000
  15       -1.245682407
  16       -0.206049499
  17       -0.636534223
  18        0.000000000
  19       -0.497369131
  20       -1.245682407
  21       -0.206049499
  22        0.636534223
  23        0.000000000
  24       -0.497369131
 Sym= B1  
 Ene=         3.761074
 Spin= Alpha
 Occup=       0.000000
   1        0.000000000
   2        0.000000000
   3        0.000000000
   4       -0.459523751
   5        0.000000000
   6        0.000000000
   7       -1.176935143
   8        0.000000000
   9        0.000000000
  10        0.000000000
  11        1.325578478
  12        0.000000000
  13        0.000000000
  14        0.000000000
  15       -1.088387618
  16       -0.310485668
  17       -0.616238776
  18        0.000000000
  19       -0.504343251
  20        1.088387618
  21        0.310485668
  22       -0.616238776
  23        0.000000000
  24        0.504343251

